;;
;; Generated by CHARMM-GUI FF-Converter
;;
;; Correspondance:
;; jul316@lehigh.edu or wonpil@lehigh.edu
;;
;; The main GROMACS topology file
;;

; Include forcefield parameters
#include "toppar/forcefield.itp"
#include "toppar/PROA.itp"
#include "toppar/POT.itp"
#include "toppar/tip4pice.itp"

[ system ]
; Name
Title

[ molecules ]
; Compound	#mols
PROA  	           1
POT   	          16
SOL  	       86228
