; Run control
integrator  = md         ; leap-frog integrator
nsteps      = 2500000  ; 250000000 * 0.002 ps = 500000 ps (500 ns)
dt          = 0.002      ; 2 fs

; Output control
nstxout     = 5000        ; save coordinates every 0.2 ps
nstvout     = 5000        ; save velocities every 0.2 ps
nstenergy   = 5000        ; save energies every 0.2 ps
nstxtcout   = 5000        ; save compressed coordinates every 0.2 ps
nstlog      = 5000        ; update log file every 0.2 ps
;energygrps  = PROTEIN SOLV

; Bond parameters
continuation            = yes      ; Restarting after NVT
constraint_algorithm    = lincs    ; holonomic constraints
constraints             = h-bonds  ; bonds involving H constrained
lincs_iter              = 1        ; accuracy of LINCS
lincs_order              = 4        ; also related to accuracy

; Neighborsearching
ns_type     = grid       ; search neighboring grid cells
nstlist     = 10         ; neighbor list update frequency (Verlet scheme)
rlist       = 1.2        ; short-range neighborlist cutoff (in nm)
rcoulomb    = 1.2        ; short-range electrostatic cutoff (in nm)
rvdw        = 1.2        ; short-range van der Waals cutoff (in nm)

; Electrostatics
coulombtype     = PME    ; Particle Mesh Ewald for long-range electrostatics
pme_order       = 4      ; cubic interpolation
fourierspacing  = 0.16   ; grid spacing for FFT

; Temperature coupling is on
tcoupl      = V-rescale             ; More accurate thermostat
tc-grps     = PROTEIN   SOLV        ; two coupling groups
tau_t       = 0.5       0.5         ; time constant, in ps
ref_t       = 260       260         ; reference temperature, one per group, in K

; Pressure coupling is on
pcoupl          = Parrinello-Rahman ; Pressure coupling for production/equilibrated NPT
pcoupltype      = isotropic         ; uniform scaling of box vectors
tau_p           = 5.0               ; time constant, in ps
ref_p           = 1.0               ; reference pressure, in bar
compressibility = 4.5e-5            ; isothermal compressibility, bar^-1

; Periodic boundary conditions
pbc         = xyz        ; 3-D PBC

; Dispersion correction
DispCorr    = EnerPres   ; account for cut-off vdW scheme

; Velocity generation
gen_vel     = no         ; Velocity generation is off (continuing from NVT)

; COM motion removal
nstcomm         = 1
comm-mode       = Linear
comm-grps       = PROTEIN SOLV

; Scale COM of reference coordinates
refcoord_scaling = com
