;;
;; Generated by CHARMM-GUI FF-Converter
;;
;; Correspondance:
;; jul316@lehigh.edu or wonpil@lehigh.edu
;;
;; The main GROMACS topology file
;;

; Include forcefield parameters
#include "toppar/forcefield.itp"
#include "toppar/INP-16l-chm.itp"
;#include "toppar/POT.itp"
#include "toppar/tip4pice.itp"

[ system ]
; Name
Title

[ molecules ]
; Compound	#mols
PROA  	           1
SOL  	       87437
